ITEM: TIMESTEP
1
ITEM: NUMBER OF ATOMS
1372
ITEM: BOX BOUNDS pp pp pp
0.0000000000000000e+00 1.1757173339677550e+01
0.0000000000000000e+00 1.1757173339677550e+01
0.0000000000000000e+00 1.1757173339677550e+01
ITEM: ATOMS id vx vy vz 
1 0.924466 0.340603 -1.69999 
2 -0.772057 0.685349 0.297815 
3 -2.09412 0.193418 -3.06083 
4 -2.1623 0.445068 -2.31708 
5 0.574118 1.91772 1.00398 
6 -0.0786649 -0.921147 -0.105764 
7 -0.116317 -1.42216 1.67202 
8 -0.776302 0.257532 -0.903583 
9 0.0990052 0.598468 0.318278 
10 1.21644 1.39655 -1.55442 
11 -0.535471 -0.055926 -0.660653 
12 0.910162 -1.92917 0.378583 
13 -0.267028 -1.03379 -0.0523875 
14 -0.222343 0.298268 -0.51451 
15 -0.775152 -1.09584 0.79576 
16 1.12928 -0.747957 -0.217808 
17 1.35418 0.147407 -0.631091 
18 -1.11192 0.404386 -0.946238 
19 -1.53753 2.80054 0.447835 
20 1.28082 0.49616 -1.39437 
21 0.279492 0.535146 0.387104 
22 1.5293 1.85053 0.885071 
23 -0.771328 0.515501 -2.12592 
24 -1.52811 0.580592 1.19255 
25 1.21646 -0.7762 -0.165665 
26 -1.38095 -0.884444 0.624561 
27 -0.640604 1.97074 0.982874 
28 2.19547 -3.50288 -0.889413 
29 0.918049 -0.669694 -0.233453 
30 -0.24741 0.292286 1.3892 
31 0.376059 1.31339 1.31652 
32 0.0496735 -0.55358 1.28308 
33 1.1974 0.938539 -1.22392 
34 -0.118246 0.413194 -0.114306 
35 0.0491349 -0.916009 0.65438 
36 -0.649811 -0.652168 -2.89417 
37 0.101934 -0.509005 0.642328 
38 -1.51844 -0.978758 -1.30623 
39 -0.440997 0.316809 0.588867 
40 -1.42602 -0.577997 0.0441336 
41 1.18954 0.314446 1.83195 
42 -0.70106 0.850644 0.628701 
43 0.568026 0.800238 0.524249 
44 -1.95392 -2.16885 0.413334 
45 -0.613392 -0.837023 0.746982 
46 1.1092 1.95206 0.730717 
47 0.56201 -0.0476975 -2.58873 
48 -0.750602 -0.810772 0.758875 
49 1.77234 0.63496 1.85211 
50 1.19066 1.33896 0.0590707 
51 -2.04853 -0.50217 0.107713 
52 1.35177 0.204389 -0.443265 
53 -1.60684 1.76789 -1.85413 
54 -0.946737 2.58275 0.433276 
55 1.02782 -0.131916 1.51636 
56 1.13887 1.72889 -0.71065 
57 -0.0920963 -0.310327 -1.08295 
58 -0.0253724 0.200293 -1.45587 
59 0.650596 0.3854 -0.286337 
60 -0.768557 0.558753 0.517948 
61 -0.871069 0.771124 -1.85378 
62 -0.962525 0.413071 -1.67532 
63 0.553865 -1.09891 -0.674923 
64 -0.271078 1.1675 -1.84429 
65 0.78471 1.53456 -1.90375 
66 -0.326537 -1.92448 0.208177 
67 1.69933 -0.491577 -0.220999 
68 0.186089 -0.541092 0.568985 
69 -0.219279 -0.356796 -0.694399 
70 -0.450403 0.207873 0.600528 
71 -1.04505 -0.817425 0.869983 
72 -1.63857 -0.0612371 -1.51747 
73 1.64482 0.433491 0.328292 
74 1.20767 0.0281176 -0.356194 
75 -1.09965 1.83852 0.109456 
76 -1.94221 0.562213 -0.23525 
77 -0.636146 -0.511023 -0.850799 
78 0.276945 -0.764289 -1.63368 
79 1.53227 1.40416 0.320174 
80 0.166678 0.0966972 -0.42604 
81 -2.40337 -0.528321 -0.844903 
82 2.13758 0.482497 -0.628769 
83 -0.216118 -1.99024 -1.2329 
84 -0.783005 -0.333678 -0.165669 
85 1.0861 -1.67114 0.00650969 
86 0.175243 -1.3966 1.33215 
87 -0.514289 1.10708 -0.651661 
88 1.14522 0.918876 -0.00888724 
89 -0.61856 0.370884 -0.826794 
90 1.18382 -0.0123528 0.103915 
91 -0.782184 -1.6653 -0.295885 
92 1.49378 0.332694 1.46765 
93 -1.18574 -0.748923 1.87074 
94 -0.231638 -0.253109 -0.0845383 
95 -0.307158 1.60962 -2.30244 
96 -0.269484 -0.466947 0.670275 
97 0.180852 -0.0640282 -0.613359 
98 -0.710841 0.126245 -1.37803 
99 -1.40693 1.8573 0.440187 
100 0.740655 -0.161174 2.82878 
101 -0.0626935 0.940171 0.246616 
102 -0.0936391 -0.130012 -1.30902 
103 -0.535863 0.213049 -0.741566 
104 0.175456 -1.25322 -0.301334 
105 0.807181 1.494 0.694148 
106 -0.926016 -0.926449 -0.628045 
107 -0.769559 1.13115 1.05761 
108 -1.21246 -0.0228961 -0.344942 
109 -0.436243 0.401967 -0.881239 
110 -0.310671 1.49731 2.71307 
111 -0.285278 1.13857 0.541715 
112 1.27176 1.28166 -0.20067 
113 -1.52887 0.667083 1.59543 
114 -0.892732 1.73654 -0.478517 
115 -0.150354 0.546342 2.14413 
116 0.883691 -0.327193 0.496575 
117 -0.453036 1.39181 0.33146 
118 -0.51021 -1.67162 -1.4755 
119 1.49826 0.421223 0.22022 
120 -0.655679 -1.52004 -1.13965 
121 0.687926 -0.0291327 1.0673 
122 -2.00781 1.37146 1.09862 
123 -0.0392736 -0.738379 0.463055 
124 0.13747 0.756194 0.113989 
125 1.44984 -0.480917 -0.821875 
126 -0.795586 -2.42869 -0.290604 
127 0.788178 0.909517 0.0583013 
128 0.428228 0.354336 -0.431565 
129 0.452635 -0.612557 -0.775879 
130 0.780869 -0.369321 -0.573921 
131 -0.483257 0.176011 0.362648 
132 1.48676 0.192062 -0.0861427 
133 0.0226927 -1.70974 2.20903 
134 -1.4477 0.188418 0.339859 
135 1.04366 -0.672604 -1.19832 
136 -1.15949 -1.03639 0.112362 
137 -1.25669 -0.969501 1.55907 
138 -0.367866 -0.274503 -0.578575 
139 -0.492282 -0.0821022 -0.399289 
140 0.750738 -0.497314 2.39419 
141 -0.204022 0.85945 0.834637 
142 -1.00008 -1.09394 -1.93016 
143 -0.163058 -1.81975 1.64903 
144 -0.968781 0.139088 0.576804 
145 0.464034 -0.857436 1.43659 
146 -0.159155 -1.02404 0.546588 
147 -1.33462 -0.334519 -1.14017 
148 0.741127 -0.212162 -0.430848 
149 0.0333921 1.06726 -0.173894 
150 -1.34222 -0.61786 0.341766 
151 -0.450718 -0.186473 -0.774201 
152 -1.73942 0.279001 0.708924 
153 2.16945 -1.89987 0.207444 
154 -0.451719 -0.707736 -0.445397 
155 -0.282972 -0.886132 0.515029 
156 -0.731621 0.516167 -2.11905 
157 -0.500407 -1.34298 -1.04992 
158 0.328928 1.57536 2.35175 
159 -0.593499 -2.50766 1.82504 
160 0.494081 -1.06232 0.217525 
161 2.08465 -1.56412 -0.0859559 
162 -0.0746257 -1.09366 0.628309 
163 -0.407257 -1.6348 -0.942001 
164 -1.62597 1.14911 1.22338 
165 1.66014 0.368243 -0.501333 
166 1.87838 -1.72923 3.11431 
167 0.411472 -0.71782 -0.262834 
168 0.0792281 2.03825 0.895244 
169 0.615265 -2.60774 -0.303684 
170 -0.372973 -0.28484 0.639592 
171 0.196589 -1.16929 1.47421 
172 1.14415 1.25697 1.26678 
173 0.205173 0.0940034 0.979094 
174 -1.11763 -1.75321 -0.15767 
175 0.647502 1.18566 0.623513 
176 -2.27931 0.764359 0.964775 
177 -0.500423 0.0253276 0.404625 
178 -1.68359 -0.525287 0.00560049 
179 -1.2889 -1.38337 -0.253904 
180 -1.15709 0.0675793 0.0619511 
181 -1.85636 -0.184954 0.250233 
182 1.13724 0.246514 -2.1899 
183 -0.868704 1.06299 2.21783 
184 1.49365 -0.346049 1.79417 
185 1.27379 1.2689 0.981511 
186 1.16828 -1.76895 3.47656 
187 1.06722 -0.094587 -0.810113 
188 0.783324 1.49276 -0.840904 
189 -0.484633 0.24337 0.35828 
190 -0.720276 0.90283 -0.429413 
191 -0.805922 -0.673891 0.109265 
192 2.03399 0.258507 0.0641818 
193 1.18029 2.0596 0.77692 
194 0.878563 -1.0718 0.790634 
195 1.73291 0.254689 0.864684 
196 -0.522747 -1.02468 0.831621 
197 1.05642 1.49776 -0.640381 
198 -0.308546 -0.934863 1.18658 
199 1.6514 -0.928822 2.0671 
200 0.219857 -0.444628 -0.325042 
201 -0.186591 -0.651501 1.608 
202 1.36148 0.290457 0.641862 
203 -1.40972 -0.392734 0.176466 
204 -0.081947 -0.345622 0.141987 
205 0.551619 -0.832614 -1.89814 
206 1.20738 -2.42928 0.451705 
207 -0.0349322 0.00190751 -0.0447839 
208 -0.939364 0.0583942 -0.872708 
209 -1.3068 -1.01827 0.0666704 
210 -0.438872 -1.56401 -0.584152 
211 -0.667883 0.591274 -0.166421 
212 0.828089 -0.422 0.230263 
213 0.811312 0.196133 0.0026048 
214 -0.377166 1.06497 1.36869 
215 1.94457 3.45549 0.257674 
216 -0.477813 0.968966 -1.71809 
217 -0.71059 0.61508 0.938699 
218 1.08226 -0.0560396 0.832725 
219 -0.138359 -3.21191 0.536608 
220 -0.414132 -0.254801 -0.0561011 
221 0.377869 -2.04109 0.624966 
222 -0.930154 1.40205 1.65764 
223 -1.08662 -0.768645 0.983862 
224 1.35212 -0.63957 0.0566087 
225 0.656155 -0.528207 0.696529 
226 -0.1944 -0.312037 -0.502259 
227 0.352643 -1.50947 -0.596672 
228 -0.37622 1.23029 1.60256 
229 0.883451 0.677715 0.704326 
230 1.92549 0.812596 -0.828182 
231 0.156761 0.180478 0.737404 
232 -1.39253 -0.310208 -1.10966 
233 0.860473 -1.48173 -1.3138 
234 -0.717095 0.500701 0.867651 
235 -0.148031 1.21425 1.57745 
236 -1.10204 -1.69703 0.441161 
237 1.70319 -0.350988 -0.835068 
238 -0.181653 -0.0348916 0.0190707 
239 -1.45807 0.148394 -1.98989 
240 -0.800394 -0.240538 2.34852 
241 1.00504 0.60597 0.483615 
242 0.718167 0.00125175 1.22339 
243 1.04432 1.03928 -1.24174 
244 1.70641 -1.61125 0.43455 
245 -0.482848 0.144812 -1.97681 
246 0.28413 -2.25009 -0.933828 
247 0.224051 -0.961515 -1.13247 
248 -1.77118 2.21232 -2.73511 
249 -3.08984 0.654964 -1.29307 
250 -1.19376 0.938962 -1.79212 
251 0.350633 0.213449 -0.327938 
252 0.167029 0.867739 -1.50348 
253 0.78696 -1.60277 1.19401 
254 -1.4031 -0.324334 -1.09755 
255 -1.36163 0.524685 -1.06491 
256 -0.94821 -1.22983 -0.0678906 
257 -0.169342 -0.605582 -1.35408 
258 -1.01401 -2.08602 -0.442621 
259 1.02946 0.00138379 2.38046 
260 -2.06552 1.63305 0.68938 
261 -0.434809 -0.0403842 0.492868 
262 -1.07762 -1.16027 -0.828069 
263 -0.0164554 -1.27332 -0.316883 
264 0.423348 1.03681 -0.185738 
265 0.435863 -1.27738 0.555631 
266 -0.615342 -0.0878457 -0.289669 
267 -1.29143 0.272399 -0.503415 
268 1.55043 -1.5249 1.69652 
269 -1.01355 -1.523 -1.32235 
270 1.19497 0.380855 -0.886734 
271 1.77647 -0.52897 -0.750985 
272 -0.787462 -0.802998 1.01053 
273 -0.184625 1.38276 -0.271707 
274 -1.3777 1.13261 -1.8189 
275 1.05167 -0.38396 -1.15927 
276 -1.08795 0.591548 0.822759 
277 -1.56345 -1.24446 -0.656435 
278 1.34857 -0.879675 2.92459 
279 -1.58862 -0.61444 0.0208316 
280 -1.08241 1.05185 1.61383 
281 0.879472 -0.540184 -1.78043 
282 -0.72688 -1.14592 0.701546 
283 0.11713 1.6787 -1.12515 
284 1.66181 2.02046 0.230609 
285 0.602455 1.67892 -2.10546 
286 -0.272177 2.02353 1.1355 
287 0.86611 0.169184 -2.50878 
288 -1.81697 1.3297 1.96022 
289 -1.05299 0.443418 -2.03576 
290 1.10466 -0.310213 1.6153 
291 -0.914513 -0.580693 -1.73672 
292 1.8628 -1.6816 -0.346958 
293 -0.874995 -0.846151 0.481238 
294 -1.17308 -0.350368 -0.00432351 
295 -0.248486 -0.831269 -1.20249 
296 0.125665 2.08395 0.0289513 
297 -0.291879 -0.456607 -0.357587 
298 -0.345853 0.851458 0.0648822 
299 -2.30666 -0.360623 1.92467 
300 1.26821 -0.673132 0.943 
301 0.798406 -1.11095 -1.8805 
302 -0.795808 -0.511505 0.219744 
303 1.88165 0.117668 -2.24351 
304 0.790469 -0.547814 1.83662 
305 1.0275 1.22949 0.287689 
306 -0.0146506 0.381999 -0.84671 
307 1.87564 -0.895595 -0.219951 
308 -0.244685 0.684151 -0.919686 
309 2.04185 1.85033 -0.309847 
310 -0.780342 1.64744 2.3265 
311 0.0388388 -2.03092 -1.21236 
312 3.74013 0.244814 0.129697 
313 -0.765348 0.590635 0.769542 
314 0.07984 1.06476 0.964912 
315 -1.65982 1.20096 -0.0329074 
316 -0.133264 0.53954 -1.37044 
317 0.0660079 0.166446 0.327104 
318 -1.555 3.27275 0.257548 
319 -0.660277 0.511686 -0.267665 
320 -0.33777 1.60512 -0.388 
321 0.921593 0.0965337 0.711384 
322 -0.567201 -0.40996 1.67805 
323 -2.0656 -0.556829 0.738033 
324 0.26397 -0.121724 1.23651 
325 0.78004 -0.73976 -0.537769 
326 -0.0627572 -0.597417 0.16095 
327 -1.53935 -1.75993 0.375793 
328 -0.630782 1.33057 -0.141295 
329 0.131685 -0.995818 -0.543547 
330 2.06412 1.18721 -0.375125 
331 0.0456319 -0.955769 0.261719 
332 -0.265025 1.39147 1.15092 
333 0.742883 0.288324 -0.283831 
334 0.147116 0.681795 -1.28012 
335 -0.674561 -1.63077 0.620621 
336 0.537488 -0.795987 -0.641144 
337 1.81435 0.269458 -1.77319 
338 -1.22007 -0.338644 -1.84739 
339 0.43614 -0.0853824 -1.08323 
340 0.198112 -1.37564 -1.06975 
341 0.368437 2.41126 0.196506 
342 0.185555 -0.11786 -0.320384 
343 0.677976 -0.0968428 0.0484777 
344 -0.912883 0.766245 1.49957 
345 2.01459 0.869991 1.11218 
346 0.0654338 0.0659162 0.870126 
347 -1.34422 -0.0970075 0.604973 
348 -0.56837 2.22947 -1.48518 
349 -0.0211038 -0.874656 -0.178921 
350 -0.381736 -0.0262019 -0.625129 
351 0.418735 -0.384194 -0.0307614 
352 -1.3348 -1.23092 2.70772 
353 0.473373 2.07547 1.83619 
354 1.80824 -0.286852 -0.83905 
355 2.27381 1.82446 0.592498 
356 0.221689 -1.16165 1.34762 
357 0.918959 0.515422 -0.43689 
358 -0.149627 1.19139 0.0478501 
359 -0.774017 -0.220389 -0.938514 
360 -0.503474 1.05361 0.362702 
361 -1.61674 -1.09185 0.222009 
362 2.19324 1.62896 -0.313542 
363 -0.0975247 0.15379 1.4876 
364 0.236325 -0.145198 -1.32152 
365 -0.13177 -0.0351573 -0.978963 
366 1.83993 0.767231 0.982548 
367 -0.561152 0.751801 0.201851 
368 0.0463037 -0.946255 -1.00564 
369 -0.79153 -1.5436 -0.0161669 
370 -0.863646 -1.92127 0.579753 
371 1.29869 -1.16823 -1.37952 
372 -1.03144 -0.159213 0.577521 
373 0.182738 -0.794806 1.36374 
374 -0.21601 -1.70504 0.846871 
375 0.827285 1.73106 -1.15663 
376 -0.357148 -0.387991 1.65623 
377 -1.58104 1.11708 -1.74338 
378 -0.910722 0.98425 -1.02225 
379 2.45084 -2.34944 1.50505 
380 1.39371 0.803116 1.39144 
381 -0.302501 0.306297 -0.589656 
382 0.851073 1.03042 -1.56456 
383 0.621941 0.703511 -1.31193 
384 0.959176 0.0693004 0.604411 
385 -0.976851 -0.405787 -0.0700641 
386 1.92107 -0.0630271 -1.00134 
387 1.16596 2.67483 -0.881358 
388 -0.120313 -1.85586 -0.986927 
389 0.977192 0.665025 0.0817022 
390 2.16306 -2.30451 -0.519911 
391 0.99153 0.548263 -0.42252 
392 1.05947 -0.794994 1.63834 
393 0.419898 0.749991 2.12369 
394 0.433242 -0.667475 -1.63906 
395 -0.239035 0.654629 0.711833 
396 -0.39553 -1.70397 0.172844 
397 1.51286 -1.99699 -1.69582 
398 0.767707 -1.08904 -1.82818 
399 -0.791197 0.301181 -3.14019 
400 -0.722848 0.00766431 0.504823 
401 -0.906854 0.727935 0.485614 
402 -0.152059 1.20146 -0.0712742 
403 1.06983 2.07651 -0.62227 
404 -0.863091 1.73701 -1.19941 
405 1.70067 1.61642 -0.634021 
406 0.478923 -0.540017 0.333047 
407 -0.116529 1.26796 0.283023 
408 1.52755 1.57443 2.27047 
409 0.608172 -1.42991 -2.2841 
410 -0.084443 -1.05168 0.51328 
411 -0.16743 -1.16662 0.638948 
412 0.581243 1.17173 0.170863 
413 -0.265247 -0.531138 0.345382 
414 -2.23961 -0.215194 1.14937 
415 0.285185 -0.441376 0.153655 
416 -1.6879 -0.312492 1.70162 
417 1.66244 -0.974761 -0.573607 
418 -1.39955 1.64962 0.674525 
419 -0.161911 0.897193 0.76652 
420 1.41562 -0.648032 -1.26036 
421 -0.195275 0.497048 -0.616382 
422 0.339804 -0.338422 0.811924 
423 0.00331879 -0.290088 0.60404 
424 -0.420549 0.870453 -0.72549 
425 -1.06442 0.391307 0.159754 
426 -0.00599892 -0.0566083 0.36653 
427 0.0245377 -0.618372 -0.505195 
428 -2.14656 -0.265807 0.0606938 
429 -0.66354 -0.274492 -0.595998 
430 0.663161 0.827532 0.843842 
431 0.162437 1.57266 0.339785 
432 -0.879371 0.505812 -0.646708 
433 1.3332 -0.567504 -0.000893437 
434 -2.04843 -0.00954206 3.42459 
435 1.0223 0.640391 1.23961 
436 -0.361523 -0.515827 -0.575484 
437 0.932157 0.529789 -0.800121 
438 2.40603 -0.28822 -0.172991 
439 1.68102 1.35189 0.987011 
440 0.172146 -0.372385 1.10347 
441 0.719486 0.409616 0.218893 
442 0.345713 -0.0605887 -0.883856 
443 1.60003 -0.611421 0.0372437 
444 1.87263 -0.39573 -0.718954 
445 -1.80108 3.35168 -0.95037 
446 0.567067 0.678735 -2.1457 
447 0.819558 -1.76328 -1.69955 
448 0.798661 -0.708399 0.657162 
449 1.97361 0.563858 -0.62276 
450 -1.75331 -0.8528 0.10852 
451 0.384992 0.823015 0.192374 
452 0.323269 -0.296948 -0.648998 
453 1.22408 0.432685 0.410336 
454 1.73683 -1.44513 0.514083 
455 -1.31926 -1.45607 0.716676 
456 0.915422 -0.312227 -2.4592 
457 -0.693528 0.995931 0.432928 
458 -0.464829 1.70144 -1.35871 
459 1.16225 0.51524 -0.925613 
460 -0.117453 1.48587 1.17359 
461 -0.0363757 -0.586574 0.974849 
462 0.424042 0.828109 1.05893 
463 0.580974 2.18632 -1.97623 
464 -0.328278 -0.208628 0.954452 
465 -0.967125 1.99724 0.69834 
466 -0.860989 -0.961991 -1.2641 
467 1.55221 -0.495627 -0.121451 
468 0.395915 -0.672137 0.510794 
469 0.200398 1.27686 -2.00033 
470 1.01721 -0.181897 1.01048 
471 0.100221 0.669151 -0.750654 
472 -1.8182 -0.112579 -0.411999 
473 -0.637587 0.192149 0.456498 
474 -2.09092 0.551664 -0.639369 
475 -0.181375 2.20085 -2.63456 
476 0.342668 -2.05181 -0.807805 
477 -0.139981 -0.853379 -1.26589 
478 -1.96124 0.72649 1.02726 
479 -0.637676 1.1497 0.652167 
480 0.462825 0.581143 0.403019 
481 0.601775 -0.447689 -0.128358 
482 1.75817 -1.00524 -1.241 
483 -1.01473 -1.83713 -0.166106 
484 0.340206 -0.544757 -0.951815 
485 2.68213 0.873251 0.356338 
486 -0.801236 -0.958935 -0.651188 
487 -0.420053 -0.816351 0.0332502 
488 -0.844958 0.733019 3.29001 
489 -2.83502 1.49208 0.0160506 
490 0.277441 2.11881 -0.136149 
491 0.489374 -0.23844 -1.59135 
492 0.499394 -0.332075 1.41054 
493 -0.534974 0.962084 0.00542044 
494 -0.686907 -1.04345 -1.49573 
495 -0.37979 2.46162 -1.6437 
496 2.35903 -0.190549 0.875493 
497 2.17342 -1.18859 0.571567 
498 -0.564875 -1.28531 0.222646 
499 0.33065 -1.75954 -0.356353 
500 0.164138 -0.295052 1.3679 
501 -2.38441 0.826177 1.05969 
502 -0.71268 0.922659 -0.42338 
503 -2.7165 -1.79011 -1.27444 
504 0.511025 -0.991667 0.822693 
505 -0.884058 0.629504 1.04814 
506 -0.716919 0.433616 -0.0940739 
507 1.1309 -3.3872 -0.987426 
508 -1.03968 1.41339 -1.99844 
509 2.0125 -1.1169 3.03155 
510 -0.11306 -0.527878 -1.37248 
511 0.866932 0.511587 0.198603 
512 -1.35728 -1.33452 0.308746 
513 -0.539779 1.47472 0.609435 
514 2.30206 -2.17064 -1.0751 
515 2.05142 -0.899049 -0.646884 
516 -1.23402 -1.90256 -0.633465 
517 0.15023 -0.972723 1.1693 
518 -0.857547 -2.11083 -0.18634 
519 0.101361 0.915506 -0.30612 
520 0.230457 0.445577 -0.842865 
521 0.944603 0.823346 0.490823 
522 -0.332889 -0.576509 1.07024 
523 -1.52021 -1.35556 -0.525702 
524 1.06236 0.734575 -0.722461 
525 -0.13566 -0.821394 1.74594 
526 0.232894 1.20543 0.381058 
527 -0.90997 0.455704 0.0293639 
528 0.297562 -1.90531 -1.21075 
529 0.723847 1.35536 -0.712732 
530 -0.424683 1.36429 0.605279 
531 -2.58229 1.99832 -0.162321 
532 -0.207866 0.484746 -0.202465 
533 -0.790227 0.205202 -1.77869 
534 -1.30083 1.20047 -0.153654 
535 -0.161985 0.829789 1.46694 
536 0.817765 -0.473477 -0.277107 
537 -0.840371 0.362153 2.11709 
538 0.688818 0.436444 0.86 
539 1.3771 -1.73739 1.36235 
540 -0.198159 -0.54256 1.4083 
541 0.285467 1.35158 1.5343 
542 -0.252877 0.634384 0.313014 
543 0.874256 -1.30096 -1.09773 
544 -0.0906738 0.620607 -1.23686 
545 0.165318 -1.07192 -2.02438 
546 -0.496798 1.37084 -3.38588 
547 0.58295 -0.274995 -0.955128 
548 -1.5354 0.723304 -0.979546 
549 -0.740029 -0.207827 0.340377 
550 -0.321172 0.835745 0.490063 
551 2.45663 -2.58228 0.681588 
552 0.334387 0.326797 -1.34256 
553 1.40378 1.72064 -0.479728 
554 0.397293 0.0705683 1.66028 
555 0.609786 -0.196564 0.358988 
556 0.178022 0.0753585 -1.15648 
557 -0.978056 -0.520666 -1.38204 
558 -0.451246 -0.905876 1.1349 
559 -0.620315 0.973575 1.21619 
560 0.729883 2.97232 2.02095 
561 1.45905 0.9031 -1.22679 
562 -0.710597 0.950015 0.389057 
563 0.10173 0.0743238 1.06385 
564 -1.0726 -1.09978 -0.425706 
565 1.49639 -0.226771 0.23759 
566 -0.359538 -0.585375 0.517085 
567 1.28507 -1.3665 -0.925893 
568 -0.326515 1.01088 0.0728181 
569 0.412386 0.379168 0.0419499 
570 -0.715853 -0.382507 -0.739257 
571 0.826351 1.50269 -0.300075 
572 -0.715339 0.287099 -0.455839 
573 0.201613 -0.488183 1.03753 
574 -0.692417 -0.827468 -1.02727 
575 1.6522 -2.00027 1.28169 
576 0.201613 -0.604291 -0.94753 
577 -0.574267 0.73236 -0.560942 
578 0.056332 -0.668793 -0.230972 
579 -1.17803 0.247645 -1.78203 
580 -0.495786 -0.523171 -1.55671 
581 -2.44935 1.34769 -0.527484 
582 -1.04098 -2.82119 0.149006 
583 -2.51634 -0.260575 0.00519613 
584 -2.12186 -0.0659136 0.570254 
585 0.129148 -0.0648036 0.264933 
586 1.56589 0.269902 -1.48956 
587 -1.26236 2.15794 -1.04104 
588 -0.613533 -0.525864 1.66482 
589 0.787647 -0.665923 1.19441 
590 -2.19144 0.37729 1.30044 
591 -1.28639 -0.247186 0.196204 
592 -0.635644 1.39738 0.669376 
593 0.5623 -1.17612 -0.46199 
594 -2.02875 0.176647 0.3617 
595 -0.413521 1.53062 -1.04584 
596 -0.256905 -0.571772 -0.205445 
597 0.769438 -1.26256 1.72261 
598 -0.83861 -0.694891 -1.78365 
599 0.542605 -1.02175 -0.995248 
600 -1.1374 1.66929 0.927566 
601 0.158683 -1.06392 0.513384 
602 -0.00016085 -0.417277 0.224227 
603 -1.8979 -0.191125 -0.815615 
604 -0.247466 -0.418884 -0.169196 
605 -1.23398 -0.597337 0.0930387 
606 -0.763786 -1.1913 1.15071 
607 0.803654 -0.519834 1.73918 
608 2.47308 1.36567 0.480267 
609 0.0270522 -1.37181 1.89312 
610 0.247952 1.85199 -0.766846 
611 -0.986145 0.188841 2.10891 
612 -0.478408 -0.812734 0.39561 
613 -0.635467 1.09982 0.226907 
614 -0.373306 2.34994 2.83382 
615 -0.780494 0.571772 -0.227615 
616 0.178388 0.276498 -1.0248 
617 -1.06462 -1.7898 -0.167053 
618 -0.137826 -1.88555 1.61192 
619 0.998952 1.55976 1.21398 
620 0.192864 -0.055632 -0.358093 
621 -0.790262 -1.93162 0.661946 
622 -0.406299 0.944943 -0.29407 
623 -0.891022 1.12713 0.680962 
624 -0.0726272 0.88111 -0.455771 
625 -0.622913 -0.518627 0.412575 
626 -0.747949 -0.316064 -0.591021 
627 0.711901 -0.705551 -0.263546 
628 -0.452234 -0.87062 0.798124 
629 1.35283 -1.13604 0.417193 
630 -2.23236 0.862599 0.158376 
631 -0.914565 0.962472 -0.407554 
632 -0.444738 -0.350059 -1.39098 
633 0.771739 0.361267 -0.970537 
634 0.0444953 -1.65708 -0.383228 
635 1.2977 2.14093 -0.956067 
636 0.898151 0.484305 -0.756321 
637 -1.47304 -1.3296 0.315009 
638 -0.102381 0.531692 1.03778 
639 -0.507561 0.887336 -0.214715 
640 1.27026 1.09145 0.823548 
641 0.0399894 -1.25806 0.291291 
642 1.05696 -2.10019 0.807272 
643 -1.37028 -0.617422 -0.956139 
644 1.24275 -0.68636 0.907703 
645 0.158825 1.11901 0.198229 
646 1.16552 -1.32433 -1.14887 
647 -0.178387 0.760921 0.493443 
648 -0.436274 1.04596 -0.897033 
649 -1.59606 -0.722421 -0.562706 
650 1.24843 1.03335 -1.6227 
651 -1.07996 0.0942496 0.476561 
652 -0.868837 -0.749549 0.679366 
653 0.960158 -0.0911442 0.601563 
654 -1.14995 -0.0915687 -1.0335 
655 -1.39772 -0.0332789 0.909859 
656 -0.210041 -1.47836 0.313965 
657 0.834544 1.73788 0.090362 
658 -0.681039 0.256006 -0.594416 
659 0.700799 -0.483977 -0.127407 
660 0.259446 0.0885109 1.52121 
661 0.403174 0.611913 0.0420445 
662 0.777016 -0.296349 -1.638 
663 -2.3501 -0.810652 2.12152 
664 0.618507 -0.374761 1.54167 
665 -2.65348 0.000285178 -1.60702 
666 -0.0121438 -0.13258 -1.09502 
667 0.553763 -0.300862 -1.18547 
668 0.246584 -1.30128 1.01798 
669 0.116287 -1.23659 -0.320498 
670 0.829356 0.14962 1.49657 
671 -0.733624 -1.48333 1.54515 
672 -0.901826 1.59322 -1.84447 
673 0.239691 1.74932 -0.20391 
674 0.0770136 -1.76071 1.18803 
675 -0.277619 -1.43489 -0.315371 
676 1.59378 0.346095 -0.790104 
677 -3.72135 1.93116 -1.12212 
678 -0.205876 0.157756 0.953665 
679 1.37795 0.187459 0.51676 
680 0.588839 -0.689103 0.446411 
681 0.785028 -0.429518 -2.10528 
682 -0.359363 -0.101283 0.616891 
683 0.493884 0.253318 1.2104 
684 -1.62801 0.886147 0.151869 
685 0.525342 2.07029 -1.49161 
686 -0.140713 -1.33999 -0.594779 
687 -0.4349 1.06256 1.66743 
688 1.39079 1.31686 -2.81232 
689 -1.99395 1.71411 -1.76931 
690 0.122759 1.38688 -0.131893 
691 1.39345 -0.130869 0.506319 
692 -1.854 -0.983961 0.418402 
693 3.08256 0.167037 1.33082 
694 0.838929 0.572211 -1.17978 
695 1.21119 -1.04424 0.369437 
696 0.346116 -0.469096 -0.707807 
697 0.698392 0.571332 -0.735797 
698 1.04776 -1.5219 -0.49914 
699 0.0619959 -0.00605249 -1.29138 
700 1.27359 0.710525 -0.820547 
701 0.181341 0.281023 0.747078 
702 -1.56213 2.55912 -1.23309 
703 2.14875 -0.831885 -0.0660071 
704 0.00433724 -0.396337 1.16286 
705 1.29581 1.17465 -0.389466 
706 -0.756215 -0.642388 1.78572 
707 -0.549788 0.359717 -0.207199 
708 -2.93167 0.828848 -1.49397 
709 -0.23471 1.32333 -0.256747 
710 -1.46706 -0.64183 2.43806 
711 1.36394 -0.621867 2.07872 
712 0.168643 0.685668 -0.266816 
713 1.77005 1.00873 -0.751644 
714 1.74713 0.592178 -0.769704 
715 -0.800691 0.600356 1.13492 
716 -3.88245 0.907029 -0.81954 
717 1.91623 -0.722672 0.273094 
718 0.401686 0.510619 0.919781 
719 2.09608 -2.83151 2.16746 
720 -0.200932 0.792778 -1.71191 
721 -2.99174 1.95097 1.29994 
722 -1.1364 1.20543 1.41883 
723 0.626501 -0.773353 -0.260643 
724 -1.17256 -0.862177 -0.56107 
725 1.34958 -0.130578 -0.475253 
726 -0.369953 -0.709881 1.38545 
727 0.653436 -0.3793 -0.396038 
728 0.826713 -1.3646 1.24081 
729 -2.71878 2.22368 2.11916 
730 2.24043 -1.77015 -1.30277 
731 0.551054 0.192879 -2.31216 
732 -0.769313 -0.0859855 -0.22806 
733 -0.40626 0.114856 0.941873 
734 -0.445912 0.730451 -1.48387 
735 1.12927 -0.170762 -0.101735 
736 1.57382 -1.4531 0.552706 
737 -0.140073 0.0814673 -0.560003 
738 0.927393 -0.628258 0.268615 
739 1.17111 -0.822931 -0.80661 
740 -2.46112 1.61228 0.747988 
741 -1.50475 0.448138 0.867578 
742 0.510442 -0.822873 0.628577 
743 -1.26082 0.632203 -1.28375 
744 -0.307414 1.30186 0.227315 
745 -0.611336 1.03045 -1.12658 
746 -0.0202081 -0.147688 -1.08377 
747 0.98484 1.9 -1.94352 
748 0.34872 0.74649 -2.06246 
749 -0.614513 -0.110124 0.975773 
750 -0.394094 0.296429 -0.788867 
751 -0.72451 0.949927 0.321192 
752 -0.514454 -0.525895 -1.81616 
753 -0.811654 0.88484 0.556558 
754 1.7593 -0.975585 -1.3811 
755 0.393022 -0.49575 -0.477378 
756 -0.823389 0.946343 -1.84778 
757 -1.97161 0.634291 -2.02863 
758 -0.369074 2.22224 -0.652799 
759 -0.764956 0.229572 -0.214954 
760 0.79491 -2.46779 -1.25981 
761 -1.22366 1.0147 -2.34624 
762 1.38395 -0.011015 0.0312303 
763 -0.354957 -0.24363 0.950939 
764 0.0833197 -0.473149 -1.70339 
765 -1.75442 -0.64188 0.285054 
766 -0.275266 -1.86113 -0.891676 
767 1.83539 -1.56498 -2.71489 
768 -1.1691 2.24488 -1.4377 
769 -1.65276 -1.29487 0.574995 
770 0.202882 1.1095 -0.0897649 
771 1.48016 1.05759 0.37251 
772 0.904604 -0.474172 -0.969748 
773 0.00334317 -3.60228 -2.16801 
774 0.590214 -2.54662 -0.515789 
775 -1.10775 1.00469 0.350251 
776 0.858413 -0.355224 0.945662 
777 -1.16833 1.24345 -0.829961 
778 0.437066 -0.897796 -0.154165 
779 -2.2811 -0.26996 -1.50425 
780 -0.471551 -0.502003 0.0401989 
781 0.585246 -0.376599 -1.47429 
782 0.775628 -2.06485 1.66159 
783 -2.29071 -1.27383 -1.03678 
784 1.82898 -0.651031 -0.913985 
785 -0.995535 0.362326 0.936807 
786 1.93997 1.94083 0.689237 
787 1.28912 1.43788 -1.52921 
788 0.708616 1.08791 1.57588 
789 1.81654 0.289472 2.01778 
790 -0.426623 2.12532 -0.42732 
791 -0.942628 -1.86217 -0.105507 
792 1.48724 -0.502205 -0.112522 
793 0.493013 -0.328119 -1.36497 
794 -0.498506 -1.2821 -0.402948 
795 -0.33339 -1.10894 -1.21546 
796 1.07235 0.995736 0.915607 
797 1.81571 -1.54485 -1.09525 
798 0.612969 0.54779 0.49234 
799 1.44979 -3.19292 0.369135 
800 1.32589 -1.82597 1.94596 
801 0.62905 0.856068 1.25357 
802 1.38337 0.336962 0.115513 
803 0.0436482 -0.346341 -2.35671 
804 2.27894 -0.271121 0.0339234 
805 -0.381967 0.708307 -0.311653 
806 -0.996907 2.36878 0.836862 
807 2.35875 0.296094 0.767028 
808 -2.48714 -0.386411 -0.280141 
809 -0.060491 -0.0735353 1.39277 
810 1.52468 0.490484 0.792693 
811 -2.80164 1.4391 0.999588 
812 0.178203 0.698628 0.719205 
813 -0.28098 0.438364 -2.50727 
814 -1.32928 0.825333 0.249514 
815 0.687525 3.20685 0.558879 
816 -1.25465 -0.247315 0.625453 
817 -0.199188 -0.857205 0.533045 
818 0.660653 0.765676 1.25214 
819 -1.50842 -0.885707 -1.55218 
820 0.0609891 2.04085 0.566299 
821 2.09873 1.39839 0.165511 
822 -0.267396 -0.388631 -1.14856 
823 -1.28839 0.592186 0.17781 
824 -0.463684 0.0600644 0.131987 
825 0.00600041 1.03102 -0.739686 
826 -0.594354 2.42161 -0.805139 
827 -1.82997 0.215886 1.93658 
828 -0.218804 0.632313 0.152701 
829 1.58225 -0.895001 0.251417 
830 -0.645273 -0.201998 -0.0460917 
831 0.392729 1.7805 -0.44941 
832 0.0323255 -0.318735 0.540319 
833 0.231984 -1.74253 1.20568 
834 0.169323 -1.72977 0.176276 
835 2.03254 -0.703969 -1.20824 
836 -0.618429 1.64717 -1.1357 
837 0.802953 1.02752 0.958832 
838 1.05898 0.695552 0.427427 
839 1.18287 -0.94707 -0.0825781 
840 2.42986 -0.0248843 -0.178322 
841 -1.75419 -0.0372152 0.184334 
842 -1.66674 -0.589661 1.70438 
843 -0.705465 0.217434 -0.105137 
844 -1.01384 0.372898 -1.96902 
845 0.354765 -1.34511 0.0923597 
846 0.286132 1.68044 -0.764891 
847 1.48231 1.56337 3.03314 
848 -1.15987 -1.16598 1.01663 
849 0.441662 0.599682 0.91688 
850 -1.19164 -0.593797 1.40521 
851 0.28749 -0.669742 1.33127 
852 0.428799 -2.61027 0.215906 
853 -1.33992 -1.6062 -0.447323 
854 0.484309 0.674862 2.01729 
855 1.36287 -0.789725 -0.846011 
856 0.048362 -0.560068 -0.524433 
857 -1.64683 -1.38368 -0.970643 
858 -0.885141 -1.70867 0.209047 
859 -1.1348 -2.42474 -1.68452 
860 1.61832 -0.299167 -1.46792 
861 -2.01292 -2.21782 -0.646995 
862 0.165791 -0.205849 -0.140075 
863 0.758452 -1.02079 -1.24998 
864 0.603509 0.577429 -1.07394 
865 -1.06722 -1.34006 -1.81366 
866 -1.8253 -0.172202 1.23066 
867 0.193549 -0.911907 -0.88776 
868 -0.474837 -0.134622 0.583667 
869 -0.497994 -0.164875 -0.667777 
870 -1.3669 0.467995 -0.0650228 
871 -1.28936 0.856987 -0.559933 
872 -0.747459 1.13538 -0.289039 
873 1.26148 -0.772285 -0.591787 
874 1.4321 -0.154895 -0.917633 
875 -1.02913 -0.986542 -2.18614 
876 1.165 1.02258 1.1042 
877 2.28886 -0.251224 0.342835 
878 1.1578 0.799397 -0.195262 
879 -0.0200668 2.67015 1.29104 
880 -0.101481 -0.408845 -0.68082 
881 -0.684787 0.0903685 -1.70202 
882 1.04888 -0.113837 1.65052 
883 -0.989133 1.4338 0.374238 
884 1.24847 -0.840935 1.1279 
885 0.4234 -0.0853165 0.00425758 
886 1.80795 1.00624 -0.768456 
887 -1.46723 -1.35712 2.21019 
888 0.975097 0.137544 -1.75985 
889 -1.08241 0.00259487 3.13447 
890 0.196129 0.327394 0.63583 
891 -0.110895 1.46986 0.587489 
892 -1.25661 -1.23678 0.361242 
893 -0.586064 0.0432406 -1.2881 
894 -0.111598 1.20999 -0.189389 
895 0.140861 -1.98774 -0.929412 
896 -1.38988 -0.214459 -1.13642 
897 -0.218287 -0.143467 2.19985 
898 -0.132257 -1.56793 2.59053 
899 -0.369804 -1.35339 0.567424 
900 0.675567 -0.195695 0.96168 
901 -1.88077 -0.361216 -1.72331 
902 0.000304677 0.295063 1.60703 
903 -0.543939 -0.602763 0.740957 
904 -1.83644 -0.0572884 -0.267743 
905 1.17968 -1.46752 -0.21691 
906 1.56135 -3.2462 0.0164884 
907 1.06762 1.90891 2.37469 
908 -1.19162 -1.13452 0.663476 
909 -0.314434 -0.0469718 0.277263 
910 -0.437899 -0.642184 0.500003 
911 -0.132916 -1.03574 0.0303039 
912 1.87658 -1.35338 1.16174 
913 1.83642 -0.0516463 -0.444856 
914 -0.243883 -0.27895 0.204651 
915 -0.58601 -1.34869 0.832247 
916 -1.98336 -1.25588 2.77077 
917 1.18183 -0.479856 0.355906 
918 -0.886448 0.103239 -0.377888 
919 -0.0278593 -0.296024 -1.49512 
920 1.60758 2.72438 -0.182943 
921 -0.24823 -0.05476 0.0790061 
922 1.70317 -2.36029 -0.450222 
923 -0.141588 1.78745 1.7662 
924 0.148637 -0.420141 1.02757 
925 -1.29045 -0.728757 0.514092 